<configuration xmlns:xsi="http://www.w3.org/2001/XMLSchema-instance" 
xsi:noNamespaceSchemaLocation="http://sumo.dlr.de/xsd/duarouterConfiguration.xsd">

    <input>
        <net-file value="network.net.xml"/>
        <route-files value="network.rou.xml"/>
		<additional-files value="additional.add.xml"/>
    </input>

    <time>
        <begin value= "0"/>
		<end value= "28800"/>
    </time>
	
	<output>
		<tripinfo-output value="tripinfo.xml"/>
		<vehroute-output value="vehRoutes.xml"/>
		<summary-output value="summary.xml"/>
	</output>

</configuration>
